Program Version,EnergyPlus, Version 9.5.0-de239b2e5f, YMD=2021.08.01 08:31
1,5,Environment Title[],Latitude[deg],Longitude[deg],Time Zone[],Elevation[m]
2,8,Day of Simulation[],Month[],Day of Month[],DST Indicator[1=yes 0=no],Hour[],StartMinute[],EndMinute[],DayType
3,5,Cumulative Day of Simulation[],Month[],Day of Month[],DST Indicator[1=yes 0=no],DayType  ! When Daily Report Variables Requested
4,2,Cumulative Days of Simulation[],Month[]  ! When Monthly Report Variables Requested
5,1,Cumulative Days of Simulation[] ! When Run Period Report Variables Requested
6,1,Calendar Year of Simulation[] ! When Annual Report Variables Requested
7,9,Environment,Site Outdoor Air Drybulb Temperature [C] !Monthly [Value,Min,Day,Hour,Minute,Max,Day,Hour,Minute]
8,9,SOUTH PERIMETER,Zone People Occupant Count [] !Monthly [Value,Min,Day,Hour,Minute,Max,Day,Hour,Minute]
9,9,EAST PERIMETER,Zone People Occupant Count [] !Monthly [Value,Min,Day,Hour,Minute,Max,Day,Hour,Minute]
10,9,NORTH PERIMETER,Zone People Occupant Count [] !Monthly [Value,Min,Day,Hour,Minute,Max,Day,Hour,Minute]
11,9,WEST PERIMETER,Zone People Occupant Count [] !Monthly [Value,Min,Day,Hour,Minute,Max,Day,Hour,Minute]
12,9,CORE,Zone People Occupant Count [] !Monthly [Value,Min,Day,Hour,Minute,Max,Day,Hour,Minute]
86,9,SOUTH PERIMETER,Zone Lights Total Heating Energy [J] !Monthly [Value,Min,Day,Hour,Minute,Max,Day,Hour,Minute]
112,9,EAST PERIMETER,Zone Lights Total Heating Energy [J] !Monthly [Value,Min,Day,Hour,Minute,Max,Day,Hour,Minute]
138,9,NORTH PERIMETER,Zone Lights Total Heating Energy [J] !Monthly [Value,Min,Day,Hour,Minute,Max,Day,Hour,Minute]
164,9,WEST PERIMETER,Zone Lights Total Heating Energy [J] !Monthly [Value,Min,Day,Hour,Minute,Max,Day,Hour,Minute]
190,9,CORE,Zone Lights Total Heating Energy [J] !Monthly [Value,Min,Day,Hour,Minute,Max,Day,Hour,Minute]
228,9,SOUTH PERIMETER,Zone Electric Equipment Total Heating Energy [J] !Monthly [Value,Min,Day,Hour,Minute,Max,Day,Hour,Minute]
242,9,EAST PERIMETER,Zone Electric Equipment Total Heating Energy [J] !Monthly [Value,Min,Day,Hour,Minute,Max,Day,Hour,Minute]
256,9,NORTH PERIMETER,Zone Electric Equipment Total Heating Energy [J] !Monthly [Value,Min,Day,Hour,Minute,Max,Day,Hour,Minute]
270,9,WEST PERIMETER,Zone Electric Equipment Total Heating Energy [J] !Monthly [Value,Min,Day,Hour,Minute,Max,Day,Hour,Minute]
284,9,CORE,Zone Electric Equipment Total Heating Energy [J] !Monthly [Value,Min,Day,Hour,Minute,Max,Day,Hour,Minute]
291,9,SOUTH PERIMETER,Zone Infiltration Sensible Heat Loss Energy [J] !Monthly [Value,Min,Day,Hour,Minute,Max,Day,Hour,Minute]
292,9,SOUTH PERIMETER,Zone Infiltration Sensible Heat Gain Energy [J] !Monthly [Value,Min,Day,Hour,Minute,Max,Day,Hour,Minute]
293,9,SOUTH PERIMETER,Zone Infiltration Air Change Rate [ach] !Monthly [Value,Min,Day,Hour,Minute,Max,Day,Hour,Minute]
294,9,EAST PERIMETER,Zone Infiltration Sensible Heat Loss Energy [J] !Monthly [Value,Min,Day,Hour,Minute,Max,Day,Hour,Minute]
295,9,EAST PERIMETER,Zone Infiltration Sensible Heat Gain Energy [J] !Monthly [Value,Min,Day,Hour,Minute,Max,Day,Hour,Minute]
296,9,EAST PERIMETER,Zone Infiltration Air Change Rate [ach] !Monthly [Value,Min,Day,Hour,Minute,Max,Day,Hour,Minute]
297,9,NORTH PERIMETER,Zone Infiltration Sensible Heat Loss Energy [J] !Monthly [Value,Min,Day,Hour,Minute,Max,Day,Hour,Minute]
298,9,NORTH PERIMETER,Zone Infiltration Sensible Heat Gain Energy [J] !Monthly [Value,Min,Day,Hour,Minute,Max,Day,Hour,Minute]
299,9,NORTH PERIMETER,Zone Infiltration Air Change Rate [ach] !Monthly [Value,Min,Day,Hour,Minute,Max,Day,Hour,Minute]
300,9,WEST PERIMETER,Zone Infiltration Sensible Heat Loss Energy [J] !Monthly [Value,Min,Day,Hour,Minute,Max,Day,Hour,Minute]
301,9,WEST PERIMETER,Zone Infiltration Sensible Heat Gain Energy [J] !Monthly [Value,Min,Day,Hour,Minute,Max,Day,Hour,Minute]
302,9,WEST PERIMETER,Zone Infiltration Air Change Rate [ach] !Monthly [Value,Min,Day,Hour,Minute,Max,Day,Hour,Minute]
303,9,CORE,Zone Infiltration Sensible Heat Loss Energy [J] !Monthly [Value,Min,Day,Hour,Minute,Max,Day,Hour,Minute]
304,9,CORE,Zone Infiltration Sensible Heat Gain Energy [J] !Monthly [Value,Min,Day,Hour,Minute,Max,Day,Hour,Minute]
305,9,CORE,Zone Infiltration Air Change Rate [ach] !Monthly [Value,Min,Day,Hour,Minute,Max,Day,Hour,Minute]
416,9,PLENUM,Zone Air System Sensible Heating Rate [W] !Monthly [Value,Min,Day,Hour,Minute,Max,Day,Hour,Minute]
417,9,PLENUM,Zone Air System Sensible Cooling Rate [W] !Monthly [Value,Min,Day,Hour,Minute,Max,Day,Hour,Minute]
418,9,PLENUM,Zone Air Temperature [C] !Monthly [Value,Min,Day,Hour,Minute,Max,Day,Hour,Minute],OFFICE OCCUPANCY 2
419,9,PLENUM,Zone Air Temperature [C] !Monthly [Value,Min,Day,Hour,Minute,Max,Day,Hour,Minute]
458,9,SOUTH PERIMETER,Zone Air System Sensible Heating Rate [W] !Monthly [Value,Min,Day,Hour,Minute,Max,Day,Hour,Minute]
459,9,SOUTH PERIMETER,Zone Air System Sensible Cooling Rate [W] !Monthly [Value,Min,Day,Hour,Minute,Max,Day,Hour,Minute]
460,9,SOUTH PERIMETER,Zone Air Temperature [C] !Monthly [Value,Min,Day,Hour,Minute,Max,Day,Hour,Minute],OFFICE OCCUPANCY 2
461,9,SOUTH PERIMETER,Zone Air Temperature [C] !Monthly [Value,Min,Day,Hour,Minute,Max,Day,Hour,Minute]
500,9,EAST PERIMETER,Zone Air System Sensible Heating Rate [W] !Monthly [Value,Min,Day,Hour,Minute,Max,Day,Hour,Minute]
501,9,EAST PERIMETER,Zone Air System Sensible Cooling Rate [W] !Monthly [Value,Min,Day,Hour,Minute,Max,Day,Hour,Minute]
502,9,EAST PERIMETER,Zone Air Temperature [C] !Monthly [Value,Min,Day,Hour,Minute,Max,Day,Hour,Minute],OFFICE OCCUPANCY 2
503,9,EAST PERIMETER,Zone Air Temperature [C] !Monthly [Value,Min,Day,Hour,Minute,Max,Day,Hour,Minute]
542,9,NORTH PERIMETER,Zone Air System Sensible Heating Rate [W] !Monthly [Value,Min,Day,Hour,Minute,Max,Day,Hour,Minute]
543,9,NORTH PERIMETER,Zone Air System Sensible Cooling Rate [W] !Monthly [Value,Min,Day,Hour,Minute,Max,Day,Hour,Minute]
544,9,NORTH PERIMETER,Zone Air Temperature [C] !Monthly [Value,Min,Day,Hour,Minute,Max,Day,Hour,Minute],OFFICE OCCUPANCY 2
545,9,NORTH PERIMETER,Zone Air Temperature [C] !Monthly [Value,Min,Day,Hour,Minute,Max,Day,Hour,Minute]
584,9,WEST PERIMETER,Zone Air System Sensible Heating Rate [W] !Monthly [Value,Min,Day,Hour,Minute,Max,Day,Hour,Minute]
585,9,WEST PERIMETER,Zone Air System Sensible Cooling Rate [W] !Monthly [Value,Min,Day,Hour,Minute,Max,Day,Hour,Minute]
586,9,WEST PERIMETER,Zone Air Temperature [C] !Monthly [Value,Min,Day,Hour,Minute,Max,Day,Hour,Minute],OFFICE OCCUPANCY 2
587,9,WEST PERIMETER,Zone Air Temperature [C] !Monthly [Value,Min,Day,Hour,Minute,Max,Day,Hour,Minute]
626,9,CORE,Zone Air System Sensible Heating Rate [W] !Monthly [Value,Min,Day,Hour,Minute,Max,Day,Hour,Minute]
627,9,CORE,Zone Air System Sensible Cooling Rate [W] !Monthly [Value,Min,Day,Hour,Minute,Max,Day,Hour,Minute]
628,9,CORE,Zone Air Temperature [C] !Monthly [Value,Min,Day,Hour,Minute,Max,Day,Hour,Minute],OFFICE OCCUPANCY 2
629,9,CORE,Zone Air Temperature [C] !Monthly [Value,Min,Day,Hour,Minute,Max,Day,Hour,Minute]
895,9,SOUTH PERIMETER VAV REHEAT,Zone Air Terminal VAV Damper Position [] !Monthly [Value,Min,Day,Hour,Minute,Max,Day,Hour,Minute]
896,9,EAST PERIMETER VAV REHEAT,Zone Air Terminal VAV Damper Position [] !Monthly [Value,Min,Day,Hour,Minute,Max,Day,Hour,Minute]
897,9,WEST PERIMETER VAV REHEAT,Zone Air Terminal VAV Damper Position [] !Monthly [Value,Min,Day,Hour,Minute,Max,Day,Hour,Minute]
898,9,CORE VAV REHEAT,Zone Air Terminal VAV Damper Position [] !Monthly [Value,Min,Day,Hour,Minute,Max,Day,Hour,Minute]
1012,9,NORTH ZONE UNITARY HEATING COIL,Heating Coil Runtime Fraction [] !Monthly [Value,Min,Day,Hour,Minute,Max,Day,Hour,Minute]
1040,9,NORTH ZONE UNITARY COOLING COIL,Cooling Coil Runtime Fraction [] !Monthly [Value,Min,Day,Hour,Minute,Max,Day,Hour,Minute]
1041,9,NORTH ZONE UNITARY FURNACE WITH DX COOLING,Unitary System Fan Part Load Ratio [] !Monthly [Value,Min,Day,Hour,Minute,Max,Day,Hour,Minute]
1042,9,BOILER 1,Boiler Heating Rate [W] !Monthly [Value,Min,Day,Hour,Minute,Max,Day,Hour,Minute]
1119,9,CHILLER 1,Chiller Evaporator Cooling Rate [W] !Monthly [Value,Min,Day,Hour,Minute,Max,Day,Hour,Minute]
1158,9,CHILLER 1,Chiller COP [W/W] !Monthly [Value,Min,Day,Hour,Minute,Max,Day,Hour,Minute]
1159,9,TOWER 1,Cooling Tower Heat Transfer Rate [W] !Monthly [Value,Min,Day,Hour,Minute,Max,Day,Hour,Minute]
End of Data Dictionary
1,RUN PERIOD 1,  41.98, -87.92,  -6.00, 201.00
4,31, 1
7,-4.644438844086011,-22.8, 7, 7,60,12.2,21,15,60
8,3.0368279569892437,0.0, 1, 1,15,10.45, 2, 9,15
9,1.3803763440860216,0.0, 1, 1,15,4.75, 2, 9,15
10,3.0368279569892437,0.0, 1, 1,15,10.45, 2, 9,15
11,1.3803763440860216,0.0, 1, 1,15,4.75, 2, 9,15
12,5.521505376344086,0.0, 1, 1,15,19.0, 2, 9,15
86,1415335680.0,71280.0, 1, 1,15,1283040.0000000003, 2, 9,15
112,611167680.0,30780.000000000004, 1, 1,15,554040.0, 2, 9,15
138,1415335680.0,71280.0, 1, 1,15,1283040.0000000003, 2, 9,15
164,611167680.0,30780.000000000004, 1, 1,15,554040.0, 2, 9,15
190,2648393280.0,133380.00000000004, 1, 1,15,2400840.0, 2, 9,15
228,943557120.0,47520.0, 1, 1,15,855360.0, 2, 9,15
242,407445120.0,20520.0, 1, 1,15,369360.0, 2, 9,15
256,943557120.0,47520.0, 1, 1,15,855360.0, 2, 9,15
270,407445120.0,20520.0, 1, 1,15,369360.0, 2, 9,15
284,1765595520.0,88920.0, 1, 1,15,1600560.0, 2, 9,15
291,730792964.4221599,0.0, 1,17,60,923733.9488692422,26,20,60
292,0.0,0.0, 1, 1,15,0.0, 1, 1,15
293,0.1400990313377818,0.0, 1,17,60,0.3598380837736568,21,19,60
294,307417926.19517126,0.0, 1,17,60,395885.52278235819,26,20,60
295,0.0,0.0, 1, 1,15,0.0, 1, 1,15
296,0.13879129493359924,0.0, 1,17,60,0.35713415318327587,21,19,60
297,715179069.765935,0.0, 1,17,60,923689.5716967488,26,20,60
298,0.0,0.0, 1, 1,15,0.0, 1, 1,15
299,0.13966785781760483,0.0, 1,17,60,0.35973382564599479,21,19,60
300,306475182.29006859,0.0, 1,17,60,395889.1437370706,26,20,60
301,0.0,0.0, 1, 1,15,0.0, 1, 1,15
302,0.138742361508317,0.0, 1,17,60,0.35716540977103819,21,19,60
303,1316258265.2685228,0.0, 1,17,60,1636339.6856984324,26,20,60
304,0.0,0.0, 1, 1,15,0.0, 1, 1,15
305,0.13287604796201489,0.0, 1,17,60,0.34116767954606899,21,19,60
416,943.440899845541,0.0, 1, 1,15,8985.393346072015,30, 7, 6
417,0.0,0.0, 1, 1,15,0.0, 1, 1,15
418,19.125129323363308,9.48534511015876, 8, 8,60,23.885893832975,17,16,30
419,17.14233613642023,9.48534511015876, 8, 8,60,23.885893832975,17,16,30
458,261.7666117710586,0.0, 2, 9, 7,6383.180797951274,27, 7, 1
459,258.09839311347977,0.0, 1, 1,15,2572.8576008071715,10,14,22
460,21.868488789448148,15.466999870434945,27, 6,15,23.89950572651144,11,17,45
461,20.239966838583844,15.466999870434945,27, 6,15,23.89950572651144,11,17,45
500,123.1964515943473,0.0, 2, 9, 7,3200.7063724486167,27, 7, 1
501,124.9349372574199,0.0, 1, 1,15,1103.8323608722213,27, 9,45
502,21.289100579641173,15.351734291184691,27, 6,15,23.899195527823669,17,10,30
503,19.809780518330727,15.351734291184691,27, 6,15,23.899195527823669,17,10,30
542,329.8195118910619,0.0, 2, 9, 7,8537.491990330072,27, 7, 7
543,268.9205054661982,0.0, 1, 1,15,4061.8751425709808,27,17,46
544,21.137544017342049,15.447956360145414,27, 6,15,23.070188505335496,17,15,15
545,19.733500659829148,15.447956360145414,27, 6,15,23.070188505335496,17,15,15
584,116.55586494176106,0.0, 2, 9, 7,3127.671039591021,27, 7, 1
585,142.95705993210056,0.0, 1, 1,15,1458.6981297058929, 7, 8, 1
586,21.133252092531234,14.531039812998298,27, 8,60,23.899046467460005,11,17,30
587,19.73759081139089,14.531039812998298,27, 8,60,23.899046467460005,11,17,30
626,180.71650358256398,0.0, 2, 9, 7,5732.842930193058, 9, 7, 1
627,303.1574734165093,0.0, 1, 1,15,1638.5303476218797,17,15,60
628,22.10364008623844,17.361576886663188,27, 5,60,23.899250052754128,11,15,30
629,20.727957537544275,17.361576886663188,27, 5,60,23.899250052754128,11,15,30
895,0.1589191643225181,0.0, 1, 1,15,1.0, 2, 7, 1
896,0.15074332453582085,0.0, 1, 1,15,1.0, 2, 7, 1
897,0.15557375056763268,0.0, 1, 1,15,1.0, 2, 7, 1
898,0.1517379113937539,0.0, 1, 1,15,1.0, 2, 7, 1
1012,0.1856538878690384,0.0, 1, 1,15,1.0, 2, 7, 1
1040,0.0,0.0, 1, 1,15,0.0, 1, 1,15
1041,0.5376344086021505,0.0, 1, 1,15,1.0000000000000003, 2,11,60
1042,1782.841120321903,0.0, 1, 1,15,15224.4526998383, 2, 7, 3
1119,2.3047820436353447,0.0, 1, 1,15,668.7165431994246,21,15,60
1158,0.012910364461562506,0.0, 1, 1,15,2.561416309174001,17,13,60
1159,53.545079589279179,0.0, 1, 1,15,10670.967246400258,17,14, 7
4,59, 2
7,-2.5235863095238115,-21.7, 6, 5,60,14.4,23,10,60
8,3.067559523809525,0.0, 1, 1,15,10.45, 1, 9,15
9,1.3943452380952382,0.0, 1, 1,15,4.75, 1, 9,15
10,3.067559523809525,0.0, 1, 1,15,10.45, 1, 9,15
11,1.3943452380952382,0.0, 1, 1,15,4.75, 1, 9,15
12,5.5773809523809529,0.0, 1, 1,15,19.0, 1, 9,15
86,1288742400.0,71280.0, 1, 1,15,1283040.0000000003, 1, 9,15
112,556502400.0,30780.000000000004, 1, 1,15,554040.0, 1, 9,15
138,1288742400.0,71280.0, 1, 1,15,1283040.0000000003, 1, 9,15
164,556502400.0,30780.000000000004, 1, 1,15,554040.0, 1, 9,15
190,2411510400.0,133380.00000000004, 1, 1,15,2400840.0, 1, 9,15
228,859161600.0,47520.0, 1, 1,15,855360.0, 1, 9,15
242,371001600.0,20520.0, 1, 1,15,369360.0, 1, 9,15
256,859161600.0,47520.0, 1, 1,15,855360.0, 1, 9,15
270,371001600.0,20520.0, 1, 1,15,369360.0, 1, 9,15
284,1607673600.0,88920.0, 1, 1,15,1600560.0, 1, 9,15
291,599050298.7523539,0.0, 7, 6,60,543467.0970402774, 5,12,60
292,0.0,0.0, 1, 1,15,0.0, 1, 1,15
293,0.14400844954419987,0.0, 7, 6,60,0.35242336582380209,24,17,60
294,252783581.12973006,0.0, 7, 6,60,220575.27230516156, 5,12,60
295,0.0,0.0, 1, 1,15,0.0, 1, 1,15
296,0.14272019355307606,0.0, 7, 6,60,0.34870382622672899,24,17,60
297,584573621.1350612,0.0, 7, 6,60,502406.001870071, 3,13,60
298,0.0,0.0, 1, 1,15,0.0, 1, 1,15
299,0.1435720290957285,0.0, 7, 6,60,0.3503942135529728,24,17,60
300,251867284.80633015,0.0, 7, 6,60,215309.5462791402, 3,13,60
301,0.0,0.0, 1, 1,15,0.0, 1, 1,15
302,0.1426641824831272,0.0, 7, 6,60,0.3483822878607107,24,17,60
303,1081179275.944995,0.0, 7, 6,60,964854.8614363863,24,17,60
304,0.0,0.0, 1, 1,15,0.0, 1, 1,15
305,0.13658211358778389,0.0, 7, 6,60,0.3354803232998349,24,17,60
416,865.6128795718091,0.0, 1, 1,15,9581.103001924706, 6, 7, 7
417,0.13187925521444827,0.0, 1, 1,15,140.11507286003417,11,18,15
418,19.709414250302105,9.6986840453857, 6, 6,60,24.104389394094228,10,17,30
419,17.86956991216531,9.6986840453857, 6, 6,60,24.104389394094228,10,17,30
458,232.68840980478184,0.0, 1, 9,33,6292.160101105559, 1, 7, 1
459,268.4555122586635,0.0, 1, 1,15,2286.2802374300765, 9,16,30
460,22.082639518560126,15.959113238631037, 6, 5,60,23.89953387939492,15,13,22
461,20.435962742285068,15.959113238631037, 6, 5,60,23.89953387939492,15,13,22
500,101.89682868323829,0.0, 1, 8, 3,3132.0541729016247, 1, 7, 1
501,146.39733683347013,0.0, 1, 1,15,1071.4906154330084, 6, 9,25
502,21.561926639958629,15.810022091554846, 6, 5,60,23.899270552001853,20,10,45
503,20.11939688919366,15.810022091554846, 6, 5,60,23.899270552001853,20,10,45
542,266.6232452842581,0.0, 1, 9,52,8443.227997762571, 6, 7, 5
543,301.72065619150296,0.0, 1, 1,15,2315.574524075423, 2,18,18
544,21.20473051309051,15.94929980591182, 6, 5,60,23.90036408894445,23,15,45
545,19.95746236506409,15.94929980591182, 6, 5,60,23.90036408894445,23,15,45
584,100.4722086222492,0.0, 1, 8, 3,3050.193066956996, 1, 7, 1
585,168.24468997159708,0.0, 1, 1,15,1566.457884390204, 9,16,60
586,21.422530566343665,15.059565243367402, 6, 8,45,23.89903249576847, 1,17,45
587,20.045569399653503,15.059565243367402, 6, 8,45,23.89903249576847, 1,17,45
626,155.9022946287792,0.0, 1, 8, 3,5668.39836249337, 1, 7, 1
627,314.09369580078137,0.0, 1, 1,15,1651.966229855046, 9,17,45
628,22.20229010643943,17.96188940709327, 6, 5,60,23.899329682954055, 9,14,45
629,20.901784023705074,17.96188940709327, 6, 5,60,23.899329682954055, 9,14,45
895,0.1521847704232784,0.0, 1, 1,15,1.0, 1, 7, 1
896,0.14190401325171468,0.0, 1, 1,15,1.0, 1, 7, 1
897,0.1484896255589105,0.0, 1, 1,15,1.0, 1, 7, 1
898,0.1447359941282958,0.0, 1, 1,15,1.0, 1, 7, 1
1012,0.16329865461240015,0.0, 1, 1,15,1.0, 1, 7, 1
1040,0.00006816608283907487,0.0, 1, 1,15,0.028160645639013945,23,14,45
1041,0.5476190476190477,0.0, 1, 1,15,1.0000000000000003, 1,17,60
1042,1470.2311564138436,0.0, 1, 1,15,15224.4526998383, 1, 7, 2
1119,25.651468502716847,0.0, 1, 1,15,1357.3712353574707,23,15,60
1158,0.07813844395545686,0.0, 1, 1,15,2.561416309174001, 1,19, 7
1159,325.52799031724126,0.0, 1, 1,15,10670.966316740793, 1,19, 7
4,90, 3
7,3.8243279569892429,-7.8,18, 3,60,21.1,27,15,60
8,3.169892473118273,0.0, 1, 1,15,10.45, 1, 9,15
9,1.4408602150537636,0.0, 1, 1,15,4.75, 1, 9,15
10,3.169892473118273,0.0, 1, 1,15,10.45, 1, 9,15
11,1.4408602150537636,0.0, 1, 1,15,4.75, 1, 9,15
12,5.763440860215054,0.0, 1, 1,15,19.0, 1, 9,15
86,1468368000.0,71280.0, 1, 1,15,1283040.0000000003, 1, 9,15
112,634068000.0,30780.000000000004, 1, 1,15,554040.0, 1, 9,15
138,1468368000.0,71280.0, 1, 1,15,1283040.0000000003, 1, 9,15
164,634068000.0,30780.000000000004, 1, 1,15,554040.0, 1, 9,15
190,2747628000.0,133380.00000000004, 1, 1,15,2400840.0, 1, 9,15
228,978912000.0,47520.0, 1, 1,15,855360.0, 1, 9,15
242,422712000.0,20520.0, 1, 1,15,369360.0, 1, 9,15
256,978912000.0,47520.0, 1, 1,15,855360.0, 1, 9,15
270,422712000.0,20520.0, 1, 1,15,369360.0, 1, 9,15
284,1831752000.0,88920.0, 1, 1,15,1600560.0, 1, 9,15
291,541859423.8747225,0.0, 4, 9,60,629182.7190084698, 4,23,60
292,0.0,0.0, 1, 1,15,0.0, 1, 1,15
293,0.15298114211637313,0.0, 4, 9,60,0.4348794342833474, 4,23,60
294,231877104.48511897,0.0, 4, 9,60,269526.53966483569, 4,23,60
295,0.0,0.0, 1, 1,15,0.0, 1, 1,15
296,0.1517696921320358,0.0, 4, 9,60,0.4315827456512687, 4,23,60
297,526909889.5835206,0.0, 4, 9,60,628854.5608427012, 4,23,60
298,0.0,0.0, 1, 1,15,0.0, 1, 1,15
299,0.15259937838305508,0.0, 4, 9,60,0.43478435019757397, 4,23,60
300,229963033.3082967,0.0, 4, 9,60,269583.06167599928, 4,23,60
301,0.0,0.0, 1, 1,15,0.0, 1, 1,15
302,0.15167594288899995,0.0, 4, 9,60,0.43158509050517859, 4,23,60
303,981991149.1647178,0.0, 4, 9,60,1167659.5604091425, 3,16,60
304,0.0,0.0, 1, 1,15,0.0, 1, 1,15
305,0.14507366427478519,0.0, 4, 9,60,0.413096553519054, 4,23,60
416,607.0606083740572,0.0, 1, 1,15,7190.984719388725, 6, 7, 7
417,1.9608942045257266,0.0, 1, 1,15,274.8767060977789,27,19,30
418,21.039492274257378,13.577268426716718, 6, 5,45,25.677316277728385,10,17,15
419,19.421123025653665,13.577268426716718, 6, 5,45,25.677316277728385,10,17,15
458,165.19073215555887,0.0, 1, 9, 7,6005.6379372151209,18, 7, 1
459,263.2110175691949,0.0, 1, 1,15,1730.295418481462,10,14,45
460,22.221843054873188,17.145105344718805, 5, 6,30,23.899443301663206,10,14, 7
461,20.861095881388537,17.145105344718805, 5, 6,30,23.899443301663206,10,14, 7
500,64.63284561963089,0.0, 1, 9, 7,2920.5668452119846,18, 7, 1
501,184.79720096521425,0.0, 1, 1,15,1288.4084009470349,15, 9,10
502,22.104505805600377,17.08392224927473, 5, 6,45,24.402171839912119,26,10,45
503,20.83436027806318,17.08392224927473, 5, 6,45,24.402171839912119,26,10,45
542,167.9435016138961,0.0, 1, 9, 7,8283.14766053328, 6, 7, 1
543,415.5372647419089,0.0, 1, 1,15,1944.0508550453797,20,16,60
544,21.47146992605779,17.131952291068047, 5, 6,30,23.900743871224465,29,14,30
545,20.44289247943426,17.131952291068047, 5, 6,30,23.900743871224465,29,14,30
584,74.39659779728922,0.0, 1, 9, 7,2795.3442544145384,18, 7, 1
585,212.30975021544092,0.0, 1, 1,15,2016.4745435164446,15,17,30
586,21.8199461027326,17.08403097845063, 5, 6,45,27.111589240495794,19,17,45
587,20.69438184821636,17.08403097845063, 5, 6,45,27.111589240495794,19,17,45
626,119.27173487742545,0.0, 1, 9, 7,5410.942562844238, 3, 7, 1
627,369.84714986459337,0.0, 1, 1,15,2012.373425313524,27,16,45
628,22.493109095774267,18.218902509715197, 5, 6,15,23.89937789217922,10,13, 7
629,21.273867550564419,18.218902509715197, 5, 6,15,23.89937789217922,10,13, 7
895,0.1267829792099689,0.0, 1, 1,15,1.0, 1, 7, 1
896,0.12237246842721354,0.0, 1, 1,15,1.0, 1, 7, 1
897,0.12514355972052883,0.0, 1, 1,15,1.0, 1, 7, 1
898,0.12987834699593293,0.0, 1, 1,15,1.0, 1, 7, 1
1012,0.08884763283994134,0.0, 1, 1,15,1.0, 1, 7, 1
1040,0.0030155897833557085,0.0, 1, 1,15,0.3343471188774157,27,15,60
1041,0.5591397849462365,0.0, 1, 1,15,1.0000000000000003, 1, 7,60
1042,889.9585532628897,0.0, 1, 1,15,15224.4526998383, 1, 7, 1
1119,74.89811571142274,0.0, 1, 1,15,5345.670457953073,27,15,60
1158,0.11188982533354174,0.0, 1, 1,15,2.561416309174001, 9,16,60
1159,466.1376415242952,0.0, 1, 1,15,10670.966316740793, 9,16,60
4,120, 4
7,9.94625000000001,-3.9, 4,24,60,31.1,15,15,60
8,2.891319444444445,0.0, 1, 1,15,10.45, 3, 9,15
9,1.3142361111111112,0.0, 1, 1,15,4.75, 3, 9,15
10,2.891319444444445,0.0, 1, 1,15,10.45, 3, 9,15
11,1.3142361111111112,0.0, 1, 1,15,4.75, 3, 9,15
12,5.256944444444445,0.0, 1, 1,15,19.0, 3, 9,15
86,1311552000.0,71280.0, 1, 1,15,1283040.0000000003, 3, 9,15
112,566352000.0,30780.000000000004, 1, 1,15,554040.0, 3, 9,15
138,1311552000.0,71280.0, 1, 1,15,1283040.0000000003, 3, 9,15
164,566352000.0,30780.000000000004, 1, 1,15,554040.0, 3, 9,15
190,2454192000.0,133380.00000000004, 1, 1,15,2400840.0, 3, 9,15
228,874368000.0,47520.0, 1, 1,15,855360.0, 3, 9,15
242,377568000.0,20520.0, 1, 1,15,369360.0, 3, 9,15
256,874368000.0,47520.0, 1, 1,15,855360.0, 3, 9,15
270,377568000.0,20520.0, 1, 1,15,369360.0, 3, 9,15
284,1636128000.0,88920.0, 1, 1,15,1600560.0, 3, 9,15
291,286169831.2938927,0.0, 1, 8,52,355563.99919626678,21,10,60
292,12758655.314015983,0.0, 1, 1,15,124858.74337719128,15,15,60
293,0.13147676339851389,0.0, 1, 8,52,0.35279202228909375,24,18,60
294,123392870.50910574,0.0, 1, 8,52,148784.21006521179,21,10,60
295,5219573.062671907,0.0, 1, 1,15,59620.55743575704,15,15,60
296,0.1304828943128475,0.0, 1, 8,52,0.34910609536835809,24,18,60
297,281332052.8729467,0.0, 1, 8,52,340115.8316789806,21,10,60
298,11768412.598368928,0.0, 1, 1,15,119433.9829827007,15,15,60
299,0.1313600129444833,0.0, 1, 8,52,0.3524602175177926,24,18,60
300,122053830.90635155,0.0, 1, 8,52,145949.0186029424,21,10,60
301,5184635.731171936,0.0, 1, 1,15,51188.671382172164,15,15,60
302,0.130414703226923,0.0, 1, 8,52,0.3485303366090973,24,18,60
303,521101841.7614387,0.0, 1, 8,52,666016.0480909303,21,10,60
304,25797203.45453364,0.0, 1, 1,15,263073.82212480987,15,15,60
305,0.12461141437144971,0.0, 1, 8,52,0.3347763017114922,24,18,60
416,389.70711040989979,0.0, 1, 1,15,4874.815633126043, 5, 7, 3
417,54.754885900624,0.0, 1, 1,15,1491.908809807257,17,16,60
418,22.384860854668536,15.18838928363229, 3, 6,60,28.3123387271579,16,17,15
419,20.892527686712108,15.18838928363229, 3, 6,60,28.3123387271579,16,17,15
458,94.49656748891325,0.0, 1, 9,22,5830.714056085008, 3, 7, 1
459,323.5379507596174,0.0, 1, 1,15,2358.3947482361238,18,15,15
460,22.411474495409665,18.3109309810949, 3, 5,15,25.10670053167912,16,15,60
461,21.25365092033058,18.3109309810949, 3, 5,15,25.10670053167912,16,15,60
500,27.88630782677217,0.0, 1, 7, 5,2656.2920432366779, 7, 7, 1
501,238.94194639629334,0.0, 1, 1,15,1456.3704279744694,24,10,22
502,22.40156200217113,18.23278334222618, 3, 5,15,27.837923689990526,16,10,45
503,21.3581538598834,18.23278334222618, 3, 5,15,27.837923689990526,16,10,45
542,90.74274450996279,0.0, 1, 9,45,8243.207225316255, 5, 7, 1
543,404.95493895659168,0.0, 1, 1,15,2306.2546833048029,18,15,30
544,22.134535365951878,18.304049657492354, 3, 5,15,24.975202109525495,16,16,15
545,21.142860648564829,18.304049657492354, 3, 5,15,24.975202109525495,16,16,15
584,40.789307835067329,0.0, 1, 9,60,2598.6900494923427, 3, 7, 1
585,267.229514435874,0.0, 1, 1,15,2118.5961739357865,17,17,45
586,22.168513629101246,18.232798358301808, 3, 5,15,28.270763369838595,23,18,15
587,21.273835793088943,18.232798358301808, 3, 5,15,28.270763369838595,23,18,15
626,72.60508531913816,0.0, 1, 9, 7,5342.036240696779, 3, 7, 1
627,448.769227511488,0.0, 1, 1,15,2596.1388170942166,18,15,60
628,22.61359966803175,19.2525243890169, 3, 3,15,23.89945521340029,24,10,45
629,21.533778171883154,19.2525243890169, 3, 3,15,23.89945521340029,24,10,45
895,0.1294789856936501,0.0, 1, 1,15,1.0, 1, 7, 1
896,0.12322354913297812,0.0, 1, 1,15,1.0, 1, 7, 1
897,0.12296463431453321,0.0, 1, 1,15,1.0, 1, 7, 1
898,0.13317962546074897,0.0, 1, 1,15,1.0, 1, 7, 1
1012,0.04877836347575988,0.0, 1, 1,15,1.0, 1, 7, 1
1040,0.03490301795445746,0.0, 1, 1,15,0.7073365679324215,18,14,60
1041,0.5277777777777778,0.0, 1, 1,15,1.0000000000000003, 3,18, 7
1042,548.0084585453589,0.0, 1, 1,15,15224.4526998383, 1, 7, 1
1119,966.2892893556744,0.0, 1, 1,15,22563.067836324437,18,14,15
1158,0.5422840303720012,0.0, 1, 1,15,3.3946769013267077,18,14,15
1159,2442.6919865091915,0.0, 1, 1,15,29510.616993123258,18,14,30
4,151, 5
7,15.30540994623656,1.7, 9, 5,60,30.6, 5,13,60
8,3.1698924731182736,0.0, 1, 1,15,10.45, 1, 9,15
9,1.4408602150537636,0.0, 1, 1,15,4.75, 1, 9,15
10,3.1698924731182736,0.0, 1, 1,15,10.45, 1, 9,15
11,1.4408602150537636,0.0, 1, 1,15,4.75, 1, 9,15
12,5.763440860215054,0.0, 1, 1,15,19.0, 1, 9,15
86,1468368000.0,71280.0, 1, 1,15,1283040.0000000003, 1, 9,15
112,634068000.0,30780.000000000004, 1, 1,15,554040.0, 1, 9,15
138,1468368000.0,71280.0, 1, 1,15,1283040.0000000003, 1, 9,15
164,634068000.0,30780.000000000004, 1, 1,15,554040.0, 1, 9,15
190,2747628000.0,133380.00000000004, 1, 1,15,2400840.0, 1, 9,15
228,978912000.0,47520.0, 1, 1,15,855360.0, 1, 9,15
242,422712000.0,20520.0, 1, 1,15,369360.0, 1, 9,15
256,978912000.0,47520.0, 1, 1,15,855360.0, 1, 9,15
270,422712000.0,20520.0, 1, 1,15,369360.0, 1, 9,15
284,1831752000.0,88920.0, 1, 1,15,1600560.0, 1, 9,15
291,135344795.2636772,0.0, 2,14,60,184171.50124178414,13,16,60
292,7480624.31026261,0.0, 1, 1,15,105950.40432182772,30,16,60
293,0.100324945910018,0.0, 3,20,60,0.3411147502076511,13,13,60
294,59753517.47929915,0.0, 2,14,60,88245.1146448695, 7, 8,60
295,3064369.142239648,0.0, 1, 1,15,45406.858433249254,30,16,60
296,0.09961841608850096,0.0, 3,20,60,0.33834984439256929,13,13,60
297,138699249.62767888,0.0, 2,14,60,184875.89597201086,13,16,60
298,7281549.618071359,0.0, 1, 1,15,105909.02983606812,30,16,60
299,0.10037809457658022,0.0, 3,20,60,0.34291793741233497,13,13,60
300,58635431.57254328,0.0, 2,14,60,88399.4176671503, 7,18,60
301,3184569.8642435928,0.0, 1, 1,15,45403.98521551288,30,16,60
302,0.0995640030642012,0.0, 3,20,60,0.33809641884048116,13,13,60
303,245635621.0161409,0.0, 2,14,60,321870.10823318929,13,16,60
304,14888652.374591394,0.0, 1, 1,15,187695.86459646488,30,16,60
305,0.09504072771784754,0.0, 3,20,60,0.3225219301066574,13,13,60
416,195.3658853687882,0.0, 1, 1,15,2006.4460866759947, 9, 9,15
417,189.66726208652805,0.0, 1, 1,15,2132.3029654948807, 4,16,45
418,24.649198021999369,18.094402579747503, 1, 6,60,30.213973565863019,21,17,45
419,23.143181749032946,18.094402579747503, 1, 6,60,30.213973565863019,21,17,45
458,13.293664243010147,0.0, 1, 8,15,2534.284954796623, 8, 7, 5
459,618.8940016619441,0.0, 1, 1,15,2550.578602925125, 5,14,60
460,23.09013740909508,19.864905559288798, 1, 1,30,25.378657983974269,21,16,15
461,22.282800569681635,19.864905559288798, 1, 1,30,25.378657983974269,21,16,15
500,3.7071536635330255,0.0, 1, 7,10,670.1136231040997,13, 7, 5
501,420.9451118928445,0.0, 1, 1,15,2044.9662672016762,22,10,15
502,23.098093909533764,19.834333733537418, 1, 1,45,28.437258509698919,28,10,30
503,22.51865580503725,19.834333733537418, 1, 1,45,28.437258509698919,28,10,30
542,17.2576613543382,0.0, 1, 8,15,1818.7505778919347, 8, 7, 5
543,633.6370576619171,0.0, 1, 1,15,2485.069306149029, 5,15,15
544,23.253994197439558,19.875526634133288, 1, 1,45,25.29124122857586,21,18,60
545,22.433412690262153,19.875526634133288, 1, 1,45,25.29124122857586,21,18,60
584,5.68658001108828,0.0, 1, 8,15,1085.5030867883275, 8, 7, 5
585,454.2510215224883,0.0, 1, 1,15,2546.8302840463259, 3,17,60
586,22.937685888619549,19.899148427825304, 1, 1,45,31.286419274253669,21,18,30
587,22.337582849609256,19.899148427825304, 1, 1,45,31.286419274253669,21,18,30
626,15.144210482454405,0.0, 1, 7,10,1251.5952853906254, 8, 7, 5
627,833.9555781732387,0.0, 1, 1,15,2954.3996700346185, 5,15,60
628,23.167942373848328,20.417863773365857, 1, 1,30,24.04639359470892,21,18,60
629,22.468058338672266,20.417863773365857, 1, 1,30,24.04639359470892,21,18,60
895,0.18099768180880353,0.0, 1, 1,15,0.6862443493892355, 4,15,30
896,0.1619599082072405,0.0, 1, 1,15,0.7257264391157591,22, 9,37
897,0.15140337654065887,0.0, 1, 1,15,0.7357297504099748, 3,17,60
898,0.19253522567627549,0.0, 1, 1,15,0.6434941631987987, 5,15,60
1012,0.003240946596133375,0.0, 1, 1,15,0.2450747874392168, 8, 7, 5
1040,0.10030674123958639,0.0, 1, 1,15,0.7299872867381355,30,16,60
1041,0.5591397849462365,0.0, 1, 1,15,1.0000000000000003, 1, 8,45
1042,74.19989038896965,0.0, 1, 1,15,5633.847970964052, 8, 7, 5
1119,2347.9320395587189,0.0, 1, 1,15,28914.30764745126,30,17,15
1158,1.3553780337883069,0.0, 1, 1,15,3.662266458817021,30,17,60
1159,6097.460445065494,0.0, 1, 1,15,37205.60706850462,30,17,30
4,181, 6
7,21.10947916666667,6.7,25, 4,60,33.3, 8,13,60
8,3.1380555555555507,0.0, 1, 1,15,10.45, 1, 9,15
9,1.426388888888889,0.0, 1, 1,15,4.75, 1, 9,15
10,3.1380555555555507,0.0, 1, 1,15,10.45, 1, 9,15
11,1.426388888888889,0.0, 1, 1,15,4.75, 1, 9,15
12,5.705555555555556,0.0, 1, 1,15,19.0, 1, 9,15
86,1408492800.0,71280.0, 1, 1,15,1283040.0000000003, 1, 9,15
112,608212800.0,30780.000000000004, 1, 1,15,554040.0, 1, 9,15
138,1408492800.0,71280.0, 1, 1,15,1283040.0000000003, 1, 9,15
164,608212800.0,30780.000000000004, 1, 1,15,554040.0, 1, 9,15
190,2635588800.0,133380.00000000004, 1, 1,15,2400840.0, 1, 9,15
228,938995200.0,47520.0, 1, 1,15,855360.0, 1, 9,15
242,405475200.0,20520.0, 1, 1,15,369360.0, 1, 9,15
256,938995200.0,47520.0, 1, 1,15,855360.0, 1, 9,15
270,405475200.0,20520.0, 1, 1,15,369360.0, 1, 9,15
284,1757059200.0,88920.0, 1, 1,15,1600560.0, 1, 9,15
291,79476662.22999844,0.0, 1,15,60,185640.18207685004,23, 1,60
292,35450308.19242784,0.0, 1, 1,15,156542.70926918946,20,17,60
293,0.12864088347031006,0.0, 1,18,60,0.28834044902109476,20,17,60
294,35827816.34964535,0.0, 1,15,60,79226.50416809255,23, 1,60
295,15275787.816127237,0.0, 1, 1,15,67166.09533751704,20,17,60
296,0.1277025216893032,0.0, 1,18,60,0.2861412008016799,20,17,60