Program Version,EnergyPlus, Version 9.5.0-de239b2e5f, YMD=2021.08.01 08:31
1,5,Environment Title[],Latitude[deg],Longitude[deg],Time Zone[],Elevation[m]
2,8,Day of Simulation[],Month[],Day of Month[],DST Indicator[1=yes 0=no],Hour[],StartMinute[],EndMinute[],DayType
3,5,Cumulative Day of Simulation[],Month[],Day of Month[],DST Indicator[1=yes 0=no],DayType  ! When Daily Meters Requested
4,2,Cumulative Days of Simulation[],Month[]  ! When Monthly Meters Requested
5,1,Cumulative Days of Simulation[] ! When Run Period Meters Requested
6,1,Calendar Year of Simulation[] ! When Annual Meters Requested
17,9,Electricity:Facility [J] !Monthly [Value,Min,Day,Hour,Minute,Max,Day,Hour,Minute]
29,9,Electricity:Building [J] !Monthly [Value,Min,Day,Hour,Minute,Max,Day,Hour,Minute]
903,9,Electricity:HVAC [J] !Monthly [Value,Min,Day,Hour,Minute,Max,Day,Hour,Minute]
1097,9,Electricity:Plant [J] !Monthly [Value,Min,Day,Hour,Minute,Max,Day,Hour,Minute]
19,11,Electricity:Facility [J] !RunPeriod [Value,Min,Month,Day,Hour,Minute,Max,Month,Day,Hour,Minute]
31,11,Electricity:Building [J] !RunPeriod [Value,Min,Month,Day,Hour,Minute,Max,Month,Day,Hour,Minute]
905,11,Electricity:HVAC [J] !RunPeriod [Value,Min,Month,Day,Hour,Minute,Max,Month,Day,Hour,Minute]
1099,11,Electricity:Plant [J] !RunPeriod [Value,Min,Month,Day,Hour,Minute,Max,Month,Day,Hour,Minute]
942,9,NaturalGas:Facility [J] !Monthly [Value,Min,Day,Hour,Minute,Max,Day,Hour,Minute]
954,9,NaturalGas:HVAC [J] !Monthly [Value,Min,Day,Hour,Minute,Max,Day,Hour,Minute]
1072,9,NaturalGas:Plant [J] !Monthly [Value,Min,Day,Hour,Minute,Max,Day,Hour,Minute]
944,11,NaturalGas:Facility [J] !RunPeriod [Value,Min,Month,Day,Hour,Minute,Max,Month,Day,Hour,Minute]
956,11,NaturalGas:HVAC [J] !RunPeriod [Value,Min,Month,Day,Hour,Minute,Max,Month,Day,Hour,Minute]
1074,11,NaturalGas:Plant [J] !RunPeriod [Value,Min,Month,Day,Hour,Minute,Max,Month,Day,Hour,Minute]
End of Data Dictionary
1,RUN PERIOD 1,  41.98, -87.92,  -6.00, 201.00
4,31, 1
17,12697646775.186175,562500.0, 1, 1,15,14159639.651858531,17,14,15
29,11169000000.0,562500.0, 1, 1,15,10125000.0, 2, 9,15
903,1397961272.0852509,0.0, 1, 1,15,1635014.3080486702, 5, 8,15
942,11201723836.300757,0.0, 1, 1,15,26285700.55726991,27, 8,15
954,5193629555.372772,0.0, 1, 1,15,9158191.269951825,27, 8,15
1072,6008094280.927994,0.0, 1, 1,15,17127509.287318089, 2, 7,30
1097,130685503.10103515,0.0, 1, 1,15,3281525.3871123327,21,17,60
4,59, 2
17,11762362475.990183,562500.0, 1, 1,15,14203829.527735357,23, 9,15
29,10170000000.0,562500.0, 1, 1,15,10125000.0, 1, 9,15
903,1258612899.1633106,0.0, 1, 1,15,1635014.3080486702, 2, 8,15
942,8606964058.75036,0.0, 1, 1,15,25661083.337560886, 6, 8,15
954,4126158107.034415,0.0, 1, 1,15,8533574.050242803, 6, 8,15
1072,4480805951.715959,0.0, 1, 1,15,17127509.287318089, 1, 7,30
1097,333749576.82696226,0.0, 1, 1,15,3282710.1885345445,23,18,60
4,90, 3
17,13426209754.722853,562500.0, 1, 1,15,14736654.351045896,27,15,60
29,11587500000.0,562500.0, 1, 1,15,10125000.0, 1, 9,15
903,1358987353.2208849,0.0, 1, 1,15,1635014.3080486698, 6, 7,15
942,5502090575.064932,0.0, 1, 1,15,22496334.848134709, 6, 7,15
954,2485494363.403432,0.0, 1, 1,15,5519488.9595269779,18, 8,15
1072,3016596211.661505,0.0, 1, 1,15,17127509.287318089, 3, 7,30
1097,479722401.5020407,0.0, 1, 1,15,3283077.9706010178,27, 8,60
4,120, 4
17,13847059419.758399,562500.0, 1, 1,15,19048719.915606046,18,14,15
29,10350000000.0,562500.0, 1, 1,15,10125000.0, 3, 9,15
903,1404544832.6191495,0.0, 1, 1,15,2284780.0062214958,18,14,60
942,3123720746.270101,0.0, 1, 1,15,21690070.316486248, 1, 7,15
954,1320546527.6911879,0.0, 1, 1,15,4562561.029168163, 1, 7,15
1072,1803174218.5789157,0.0, 1, 1,15,17127509.287318086, 1, 7,15
1097,2092514587.1393064,0.0, 1, 1,15,6665757.2380200889,18,14,15
4,151, 5
17,18769474590.691907,562500.0, 1, 1,15,20360098.58265976,30,17,15
29,11587500000.0,562500.0, 1, 1,15,10125000.0, 1, 9,15
903,1884966725.635371,0.0, 1, 1,15,2334433.6516453844,30,16,60
942,345097656.54586717,0.0, 1, 1,15,5964944.306020389, 8, 7,15
954,90664818.40087658,0.0, 1, 1,15,1675322.2707824319, 8, 8,15
1072,254432838.14499054,0.0, 1, 1,15,4917764.436429521, 8, 7,15
1097,5297007865.056559,0.0, 1, 1,15,7914662.281672978,30,17,15
4,181, 6
17,20878620935.90763,562500.0, 1, 1,15,21644273.240058554, 8,13,60
29,11115000000.0,562500.0, 1, 1,15,10125000.0, 1, 9,15
903,2578157977.385426,0.0, 1, 1,15,3650728.0771135396, 8,14,15
942,965375.2079566574,0.0, 1, 1,15,344412.40847072817,23, 7,30
954,0.0,0.0, 1, 1,15,0.0, 1, 1,15
1072,965375.2079566574,0.0, 1, 1,15,344412.40847072817,23, 7,30
1097,7185462958.522189,0.0, 1, 1,15,7916168.86815871,29,10,45
4,212, 7
17,22998466855.975366,562500.0, 1, 1,15,21826804.918482316,19,17,60
29,10822500000.0,562500.0, 1, 1,15,10125000.0, 3, 9,15
903,3176957717.2972319,0.0, 1, 1,15,3754313.1845846625,19,16,60
942,0.0,0.0, 1, 1,15,0.0, 1, 1,15
954,0.0,0.0, 1, 1,15,0.0, 1, 1,15
1072,0.0,0.0, 1, 1,15,0.0, 1, 1,15
1097,8999009138.678124,0.0, 1, 1,15,8013654.459033764,24,20,30
4,243, 8
17,22150314402.922124,562500.0, 1, 1,15,21739868.91758633, 4,16,60
29,11587500000.0,562500.0, 1, 1,15,10125000.0, 1, 9,15
903,2785923614.7354896,0.0, 1, 1,15,3698116.4103287036, 4,16,60
942,0.0,0.0, 1, 1,15,0.0, 1, 1,15
954,0.0,0.0, 1, 1,15,0.0, 1, 1,15
1072,0.0,0.0, 1, 1,15,0.0, 1, 1,15
1097,7776890788.18663,0.0, 1, 1,15,8006788.566380968, 4,22,60
4,273, 9
17,18764830772.928735,562500.0, 1, 1,15,20333274.59728236, 6,14,15
29,10768500000.0,562500.0, 1, 1,15,10125000.0, 1, 9,15
903,2091753927.4375017,0.0, 1, 1,15,2502207.0267085658, 5,15,30
942,2119145.7455018835,0.0, 1, 1,15,220743.16857437659,25, 7,30
954,0.0,0.0, 1, 1,15,0.0, 1, 1,15
1072,2119145.7455018835,0.0, 1, 1,15,220743.16857437659,25, 7,30
1097,5904576845.491255,0.0, 1, 1,15,7854114.637350465, 6,17,60
4,304,10
17,15959743404.853243,562500.0, 1, 1,15,15247518.562403959,20,15,60
29,11169000000.0,562500.0, 1, 1,15,10125000.0, 2, 9,15
903,1460249107.0610326,0.0, 1, 1,15,1627624.474795924, 9,15,60
942,856312389.2348873,0.0, 1, 1,15,8732045.874727427,24, 7,15
954,420273489.3245579,0.0, 1, 1,15,2970322.191496333,14, 8,15
1072,436038899.9103299,0.0, 1, 1,15,6662074.064419216,24, 7,15
1097,3330494297.792246,0.0, 1, 1,15,3515050.8223314199,20,15,60
4,334,11
17,14393359935.687182,562500.0, 1, 1,15,15227415.8436949, 2,14,15
29,11115000000.0,562500.0, 1, 1,15,10125000.0, 1, 9,15
903,1353273225.7699006,0.0, 1, 1,15,1635014.3080486698,27, 7,30
942,5138840156.060563,0.0, 1, 1,15,23946523.046870229,28, 8,15
954,2402168421.8030207,0.0, 1, 1,15,6819013.75955214,28, 8,15
1072,2736671734.2575447,0.0, 1, 1,15,17127509.28731809,27, 7,15
1097,1925086709.9174209,0.0, 1, 1,15,3603398.003648349, 2,14,15
4,365,12
17,12256180295.306355,562500.0, 1, 1,15,14131016.540034257,15,14,45
29,10822500000.0,562500.0, 1, 1,15,10125000.0, 1, 9,15
903,1351867276.8958677,0.0, 1, 1,15,1635014.3080486702,16, 8,15
942,10002671493.446543,0.0, 1, 1,15,24940349.272971404,20, 8,15
954,4883689321.957319,0.0, 1, 1,15,7812839.985653316,20, 8,15
1072,5118982171.489235,0.0, 1, 1,15,17127509.287318089, 2, 7,30
1097,81813018.41061674,0.0, 1, 1,15,3206373.158945679,15,14,45
5,365
19,197904269619.9276,562500.0, 1, 1, 1,15,21826804.918482316, 7,19,17,60
31,132264000000.0,562500.0, 1, 1, 1,15,10125000.0, 1, 2, 9,15
905,22103255929.300867,0.0, 1, 1, 1,15,3754313.1845846625, 7,19,16,60
944,44780505432.62754,0.0, 1, 1, 1,15,26285700.55726991, 1,27, 8,15
956,20922624604.98759,0.0, 1, 1, 1,15,9158191.269951825, 1,27, 8,15
1074,23857880827.640039,0.0, 1, 1, 1,15,17127509.28731809,11,27, 7,15
1099,43537013690.62298,0.0, 1, 1, 1,15,8013654.459033764, 7,24,20,30
End of Data
 Number of Records Written=          91
